<?xml version="1.0" encoding="UTF-8"?>

<!-- generated on 2026-06-14 22:28:28 by Eclipse SUMO sumo Version 1.12.0
<configuration xmlns:xsi="http://www.w3.org/2001/XMLSchema-instance" xsi:noNamespaceSchemaLocation="http://sumo.dlr.de/xsd/sumoConfiguration.xsd">

    <input>
        <net-file value="/home/randy/Documents/Python/ATSC-Detroit/training/../env/../simulation/intersection.net.xml"/>
        <route-files value="/home/randy/Documents/Python/ATSC-Detroit/training/../env/../simulation/routes.rou.xml"/>
        <additional-files value="/home/randy/Documents/Python/ATSC-Detroit/training/../env/../simulation/detectors.add.xml"/>
    </input>

    <output>
        <summary-output value="/home/randy/Documents/Python/ATSC-Detroit/training/../env/../simulation/output/summary.xml"/>
        <tripinfo-output value="/home/randy/Documents/Python/ATSC-Detroit/training/../env/../simulation/output/tripinfo.xml"/>
    </output>

    <time>
        <begin value="0"/>
        <end value="3600"/>
        <step-length value="1.0"/>
    </time>

    <processing>
        <collision.action value="warn"/>
        <time-to-teleport value="300"/>
        <waiting-time-memory value="1000"/>
    </processing>

    <report>
        <no-warnings value="true"/>
    </report>

    <traci_server>
        <remote-port value="34623"/>
    </traci_server>

    <gui_only>
        <start value="true"/>
        <delay value="50"/>
        <tracker-interval value="1.0"/>
    </gui_only>

</configuration>
-->

<tripinfos xmlns:xsi="http://www.w3.org/2001/XMLSchema-instance" xsi:noNamespaceSchemaLocation="http://sumo.dlr.de/xsd/tripinfo_file.xsd">
    <tripinfo id="am_liv_nb.0" depart="0.00" departLane="B1B0_0" departPos="5.10" departSpeed="0.00" departDelay="0.00" arrival="20.00" arrivalLane="B0A0_0" arrivalPos="93.60" arrivalSpeed="10.93" duration="20.00" routeLength="184.68" waitingTime="0.00" waitingCount="0" stopTime="0.00" timeLoss="6.55" rerouteNo="0" devices="tripinfo_am_liv_nb.0" vType="car" speedFactor="1.01" vaporized=""/>
    <tripinfo id="am_liv_sb.0" depart="0.00" departLane="A0A1_0" departPos="5.10" departSpeed="0.00" departDelay="0.00" arrival="20.00" arrivalLane="A1B1_0" arrivalPos="93.60" arrivalSpeed="13.82" duration="20.00" routeLength="184.68" waitingTime="0.00" waitingCount="0" stopTime="0.00" timeLoss="6.43" rerouteNo="0" devices="tripinfo_am_liv_sb.0" vType="car" speedFactor="1.08" vaporized=""/>
    <tripinfo id="am_mich_wb.0" depart="0.00" departLane="A1A0_0" departPos="5.10" departSpeed="0.00" departDelay="0.00" arrival="21.00" arrivalLane="A0B0_0" arrivalPos="93.60" arrivalSpeed="12.97" duration="21.00" routeLength="189.84" waitingTime="0.00" waitingCount="0" stopTime="0.00" timeLoss="5.84" rerouteNo="0" devices="tripinfo_am_mich_wb.0" vType="car" speedFactor="1.06" vaporized=""/>
    <tripinfo id="am_mich_eb.0" depart="0.00" departLane="B0A0_0" departPos="5.10" departSpeed="0.00" departDelay="0.00" arrival="22.00" arrivalLane="A0A1_0" arrivalPos="93.60" arrivalSpeed="12.59" duration="22.00" routeLength="184.68" waitingTime="0.00" waitingCount="0" stopTime="0.00" timeLoss="6.84" rerouteNo="0" devices="tripinfo_am_mich_eb.0" vType="car" speedFactor="0.94" vaporized=""/>
    <tripinfo id="am_mich_wb.1" depart="4.00" departLane="A1A0_0" departPos="5.10" departSpeed="0.00" departDelay="0.36" arrival="24.00" arrivalLane="A0B0_0" arrivalPos="93.60" arrivalSpeed="13.25" duration="20.00" routeLength="189.84" waitingTime="0.00" waitingCount="0" stopTime="0.00" timeLoss="5.37" rerouteNo="0" devices="tripinfo_am_mich_wb.1" vType="car" speedFactor="1.03" vaporized=""/>
    <tripinfo id="am_mich_eb.1" depart="5.00" departLane="B0A0_0" departPos="5.10" departSpeed="0.00" departDelay="0.56" arrival="28.00" arrivalLane="A0A1_0" arrivalPos="93.60" arrivalSpeed="11.25" duration="23.00" routeLength="184.68" waitingTime="0.00" waitingCount="0" stopTime="0.00" timeLoss="6.20" rerouteNo="0" devices="tripinfo_am_mich_eb.1" vType="car" speedFactor="0.83" vaporized=""/>
    <tripinfo id="am_mich_wb.2" depart="8.00" departLane="A1A0_0" departPos="5.10" departSpeed="0.00" departDelay="0.73" arrival="28.00" arrivalLane="A0B0_0" arrivalPos="93.60" arrivalSpeed="13.15" duration="20.00" routeLength="189.84" waitingTime="0.00" waitingCount="0" stopTime="0.00" timeLoss="5.05" rerouteNo="0" devices="tripinfo_am_mich_wb.2" vType="car" speedFactor="1.05" vaporized=""/>
    <tripinfo id="am_liv_sb.1" depart="8.00" departLane="A0A1_0" departPos="5.10" departSpeed="0.00" departDelay="0.00" arrival="28.00" arrivalLane="A1B1_0" arrivalPos="93.60" arrivalSpeed="11.90" duration="20.00" routeLength="184.68" waitingTime="0.00" waitingCount="0" stopTime="0.00" timeLoss="5.68" rerouteNo="0" devices="tripinfo_am_liv_sb.1" vType="car" speedFactor="0.94" vaporized=""/>
    <tripinfo id="am_liv_nb.1" depart="8.00" departLane="B1B0_0" departPos="5.10" departSpeed="0.00" departDelay="0.00" arrival="31.00" arrivalLane="B0A0_0" arrivalPos="93.60" arrivalSpeed="9.49" duration="23.00" routeLength="184.68" waitingTime="0.00" waitingCount="0" stopTime="0.00" timeLoss="7.49" rerouteNo="0" devices="tripinfo_am_liv_nb.1" vType="car" speedFactor="0.89" vaporized=""/>
    <tripinfo id="am_mich_wb.3" depart="11.00" departLane="A1A0_0" departPos="5.10" departSpeed="0.00" departDelay="0.09" arrival="31.00" arrivalLane="A0B0_0" arrivalPos="93.60" arrivalSpeed="13.58" duration="20.00" routeLength="189.84" waitingTime="0.00" waitingCount="0" stopTime="0.00" timeLoss="5.24" rerouteNo="0" devices="tripinfo_am_mich_wb.3" vType="car" speedFactor="1.09" vaporized=""/>
    <tripinfo id="am_mich_wb.4" depart="15.00" departLane="A1A0_0" departPos="5.10" departSpeed="0.00" departDelay="0.46" arrival="35.00" arrivalLane="A0B0_0" arrivalPos="93.60" arrivalSpeed="13.23" duration="20.00" routeLength="189.84" waitingTime="0.00" waitingCount="0" stopTime="0.00" timeLoss="4.95" rerouteNo="0" devices="tripinfo_am_mich_wb.4" vType="car" speedFactor="1.05" vaporized=""/>
    <tripinfo id="am_mich_eb.2" depart="13.00" departLane="B0A0_0" departPos="5.10" departSpeed="0.00" departDelay="4.11" arrival="36.00" arrivalLane="A0A1_0" arrivalPos="93.60" arrivalSpeed="11.32" duration="23.00" routeLength="184.68" waitingTime="0.00" waitingCount="0" stopTime="0.00" timeLoss="6.55" rerouteNo="0" devices="tripinfo_am_mich_eb.2" vType="car" speedFactor="0.86" vaporized=""/>
    <tripinfo id="am_liv_nb.2" depart="16.00" departLane="B1B0_0" departPos="5.10" departSpeed="0.00" departDelay="0.00" arrival="37.00" arrivalLane="B0A0_0" arrivalPos="93.60" arrivalSpeed="9.14" duration="21.00" routeLength="184.68" waitingTime="0.00" waitingCount="0" stopTime="0.00" timeLoss="7.09" rerouteNo="0" devices="tripinfo_am_liv_nb.2" vType="car" speedFactor="1.12" vaporized=""/>
    <tripinfo id="am_mich_eb.3" depart="16.00" departLane="B0A0_0" departPos="5.10" departSpeed="0.00" departDelay="2.67" arrival="39.00" arrivalLane="A0A1_0" arrivalPos="93.60" arrivalSpeed="13.28" duration="23.00" routeLength="184.68" waitingTime="0.00" waitingCount="0" stopTime="0.00" timeLoss="8.87" rerouteNo="0" devices="tripinfo_am_mich_eb.3" vType="car" speedFactor="1.03" vaporized=""/>
    <tripinfo id="am_liv_sb.2" depart="20.00" departLane="A0A1_0" departPos="5.10" departSpeed="0.00" departDelay="4.00" arrival="41.00" arrivalLane="A1B1_0" arrivalPos="93.60" arrivalSpeed="13.58" duration="21.00" routeLength="184.68" waitingTime="0.00" waitingCount="0" stopTime="0.00" timeLoss="6.19" rerouteNo="0" devices="tripinfo_am_liv_sb.2" vType="car" speedFactor="0.99" vaporized=""/>
    <tripinfo id="am_mich_wb.5" depart="19.00" departLane="A1A0_0" departPos="5.10" departSpeed="0.00" departDelay="0.82" arrival="41.00" arrivalLane="A0B0_0" arrivalPos="93.60" arrivalSpeed="11.19" duration="22.00" routeLength="189.84" waitingTime="0.00" waitingCount="0" stopTime="0.00" timeLoss="5.90" rerouteNo="0" devices="tripinfo_am_mich_wb.5" vType="car" speedFactor="0.88" vaporized=""/>
    <tripinfo id="am_mich_wb.6" depart="22.00" departLane="A1A0_0" departPos="5.10" departSpeed="0.00" departDelay="0.18" arrival="44.00" arrivalLane="A0B0_0" arrivalPos="93.60" arrivalSpeed="12.02" duration="22.00" routeLength="189.84" waitingTime="0.00" waitingCount="0" stopTime="0.00" timeLoss="6.45" rerouteNo="0" devices="tripinfo_am_mich_wb.6" vType="car" speedFactor="0.94" vaporized=""/>
    <tripinfo id="am_liv_nb.3" depart="24.00" departLane="B1B0_0" departPos="5.10" departSpeed="0.00" departDelay="0.00" arrival="44.00" arrivalLane="B0A0_0" arrivalPos="93.60" arrivalSpeed="11.83" duration="20.00" routeLength="184.68" waitingTime="0.00" waitingCount="0" stopTime="0.00" timeLoss="6.68" rerouteNo="0" devices="tripinfo_am_liv_nb.3" vType="car" speedFactor="1.16" vaporized=""/>
    <tripinfo id="am_mich_eb.4" depart="23.00" departLane="B0A0_0" departPos="5.10" departSpeed="0.00" departDelay="5.22" arrival="46.00" arrivalLane="A0A1_0" arrivalPos="93.60" arrivalSpeed="11.77" duration="23.00" routeLength="184.68" waitingTime="0.00" waitingCount="0" stopTime="0.00" timeLoss="7.29" rerouteNo="0" devices="tripinfo_am_mich_eb.4" vType="car" speedFactor="0.93" vaporized=""/>
    <tripinfo id="am_mich_wb.7" depart="26.00" departLane="A1A0_0" departPos="5.10" departSpeed="0.00" departDelay="0.55" arrival="47.00" arrivalLane="A0B0_0" arrivalPos="93.60" arrivalSpeed="13.00" duration="21.00" routeLength="189.84" waitingTime="0.00" waitingCount="0" stopTime="0.00" timeLoss="6.02" rerouteNo="0" devices="tripinfo_am_mich_wb.7" vType="car" speedFactor="1.01" vaporized=""/>
    <tripinfo id="am_mich_eb.5" depart="30.00" departLane="B0A0_0" departPos="5.10" departSpeed="0.00" departDelay="7.78" arrival="52.00" arrivalLane="A0A1_0" arrivalPos="93.60" arrivalSpeed="12.65" duration="22.00" routeLength="184.68" waitingTime="0.00" waitingCount="0" stopTime="0.00" timeLoss="6.58" rerouteNo="0" devices="tripinfo_am_mich_eb.5" vType="car" speedFactor="0.94" vaporized=""/>
    <tripinfo id="am_mich_wb.8" depart="30.00" departLane="A1A0_0" departPos="5.10" departSpeed="0.00" departDelay="0.91" arrival="52.00" arrivalLane="A0B0_0" arrivalPos="93.60" arrivalSpeed="11.88" duration="22.00" routeLength="189.84" waitingTime="0.00" waitingCount="0" stopTime="0.00" timeLoss="5.07" rerouteNo="0" devices="tripinfo_am_mich_wb.8" vType="car" speedFactor="0.89" vaporized=""/>
    <tripinfo id="am_mich_wb.9" depart="33.00" departLane="A1A0_0" departPos="5.10" departSpeed="0.00" departDelay="0.28" arrival="55.00" arrivalLane="A0B0_0" arrivalPos="93.60" arrivalSpeed="12.98" duration="22.00" routeLength="189.84" waitingTime="0.00" waitingCount="0" stopTime="0.00" timeLoss="6.52" rerouteNo="0" devices="tripinfo_am_mich_wb.9" vType="car" speedFactor="0.95" vaporized=""/>
    <tripinfo id="am_mich_wb.10" depart="37.00" departLane="A1A0_0" departPos="5.10" departSpeed="0.00" departDelay="0.64" arrival="58.00" arrivalLane="A0B0_0" arrivalPos="93.60" arrivalSpeed="12.02" duration="21.00" routeLength="189.84" waitingTime="0.00" waitingCount="0" stopTime="0.00" timeLoss="5.12" rerouteNo="0" devices="tripinfo_am_mich_wb.10" vType="car" speedFactor="0.93" vaporized=""/>
    <tripinfo id="am_mich_eb.6" depart="37.00" departLane="B0A0_0" departPos="5.10" departSpeed="0.00" departDelay="10.34" arrival="59.00" arrivalLane="A0A1_0" arrivalPos="93.60" arrivalSpeed="12.72" duration="22.00" routeLength="184.68" waitingTime="0.00" waitingCount="0" stopTime="0.00" timeLoss="7.62" rerouteNo="0" devices="tripinfo_am_mich_eb.6" vType="car" speedFactor="0.98" vaporized=""/>
    <tripinfo id="am_liv_nb.4" depart="32.00" departLane="B1B0_0" departPos="5.10" departSpeed="0.00" departDelay="0.00" arrival="59.00" arrivalLane="B0A0_0" arrivalPos="93.60" arrivalSpeed="6.66" duration="27.00" routeLength="184.68" waitingTime="0.00" waitingCount="0" stopTime="0.00" timeLoss="11.21" rerouteNo="0" devices="tripinfo_am_liv_nb.4" vType="car" speedFactor="0.87" vaporized=""/>
    <tripinfo id="am_mich_wb.11" depart="40.00" departLane="A1A0_0" departPos="5.10" departSpeed="0.00" departDelay="0.00" arrival="60.00" arrivalLane="A0B0_0" arrivalPos="93.60" arrivalSpeed="13.31" duration="20.00" routeLength="189.84" waitingTime="0.00" waitingCount="0" stopTime="0.00" timeLoss="5.75" rerouteNo="0" devices="tripinfo_am_mich_wb.11" vType="car" speedFactor="1.18" vaporized=""/>
    <tripinfo id="am_liv_nb.5" depart="41.00" departLane="B1B0_0" departPos="5.10" departSpeed="0.00" departDelay="1.00" arrival="61.00" arrivalLane="B0A0_0" arrivalPos="93.60" arrivalSpeed="13.41" duration="20.00" routeLength="184.68" waitingTime="0.00" waitingCount="0" stopTime="0.00" timeLoss="6.48" rerouteNo="0" devices="tripinfo_am_liv_nb.5" vType="car" speedFactor="1.01" vaporized=""/>
    <tripinfo id="am_mich_eb.7" depart="40.00" departLane="B0A0_0" departPos="5.10" departSpeed="0.00" departDelay="8.89" arrival="64.00" arrivalLane="A0A1_0" arrivalPos="93.60" arrivalSpeed="10.69" duration="24.00" routeLength="184.68" waitingTime="0.00" waitingCount="0" stopTime="0.00" timeLoss="7.22" rerouteNo="0" devices="tripinfo_am_mich_eb.7" vType="car" speedFactor="0.83" vaporized=""/>
    <tripinfo id="am_mich_wb.12" depart="44.00" departLane="A1A0_0" departPos="5.10" departSpeed="0.00" departDelay="0.37" arrival="64.00" arrivalLane="A0B0_0" arrivalPos="93.60" arrivalSpeed="12.72" duration="20.00" routeLength="189.84" waitingTime="0.00" waitingCount="0" stopTime="0.00" timeLoss="5.71" rerouteNo="0" devices="tripinfo_am_mich_wb.12" vType="car" speedFactor="0.99" vaporized=""/>
    <tripinfo id="am_liv_sb.3" depart="45.00" departLane="A0A1_0" departPos="5.10" departSpeed="0.00" departDelay="21.00" arrival="65.00" arrivalLane="A1B1_0" arrivalPos="93.60" arrivalSpeed="13.60" duration="20.00" routeLength="184.68" waitingTime="0.00" waitingCount="0" stopTime="0.00" timeLoss="6.14" rerouteNo="0" devices="tripinfo_am_liv_sb.3" vType="car" speedFactor="1.02" vaporized=""/>
    <tripinfo id="am_mich_eb.8" depart="44.00" departLane="B0A0_0" departPos="5.10" departSpeed="0.00" departDelay="8.45" arrival="66.00" arrivalLane="A0A1_0" arrivalPos="93.60" arrivalSpeed="13.16" duration="22.00" routeLength="184.68" waitingTime="0.00" waitingCount="0" stopTime="0.00" timeLoss="7.67" rerouteNo="0" devices="tripinfo_am_mich_eb.8" vType="car" speedFactor="1.13" vaporized=""/>
    <tripinfo id="am_mich_wb.13" depart="48.00" departLane="A1A0_0" departPos="5.10" departSpeed="0.00" departDelay="0.73" arrival="68.00" arrivalLane="A0B0_0" arrivalPos="93.60" arrivalSpeed="12.50" duration="20.00" routeLength="189.84" waitingTime="0.00" waitingCount="0" stopTime="0.00" timeLoss="5.26" rerouteNo="0" devices="tripinfo_am_mich_wb.13" vType="car" speedFactor="0.97" vaporized=""/>
    <tripinfo id="am_liv_nb.6" depart="48.00" departLane="B1B0_0" departPos="5.10" departSpeed="0.00" departDelay="0.00" arrival="69.00" arrivalLane="B0A0_0" arrivalPos="93.60" arrivalSpeed="10.62" duration="21.00" routeLength="184.68" waitingTime="0.00" waitingCount="0" stopTime="0.00" timeLoss="7.08" rerouteNo="0" devices="tripinfo_am_liv_nb.6" vType="car" speedFactor="1.18" vaporized=""/>
    <tripinfo id="am_mich_wb.14" depart="51.00" departLane="A1A0_0" departPos="5.10" departSpeed="0.00" departDelay="0.10" arrival="71.00" arrivalLane="A0B0_0" arrivalPos="93.60" arrivalSpeed="12.68" duration="20.00" routeLength="189.84" waitingTime="0.00" waitingCount="0" stopTime="0.00" timeLoss="5.37" rerouteNo="0" devices="tripinfo_am_mich_wb.14" vType="car" speedFactor="1.03" vaporized=""/>
    <tripinfo id="am_mich_eb.9" depart="55.00" departLane="B0A0_0" departPos="5.10" departSpeed="0.00" departDelay="15.00" arrival="77.00" arrivalLane="A0A1_0" arrivalPos="93.60" arrivalSpeed="8.88" duration="22.00" routeLength="184.68" waitingTime="0.00" waitingCount="0" stopTime="0.00" timeLoss="8.42" rerouteNo="0" devices="tripinfo_am_mich_eb.9" vType="car" speedFactor="1.15" vaporized=""/>
    <tripinfo id="am_mich_wb.15" depart="55.00" departLane="A1A0_0" departPos="5.10" departSpeed="0.00" departDelay="0.46" arrival="77.00" arrivalLane="A0B0_0" arrivalPos="93.60" arrivalSpeed="12.68" duration="22.00" routeLength="189.84" waitingTime="0.00" waitingCount="0" stopTime="0.00" timeLoss="6.97" rerouteNo="0" devices="tripinfo_am_mich_wb.15" vType="car" speedFactor="1.09" vaporized=""/>
    <tripinfo id="am_liv_nb.7" depart="56.00" departLane="B1B0_0" departPos="5.10" departSpeed="0.00" departDelay="0.00" arrival="77.00" arrivalLane="B0A0_0" arrivalPos="93.60" arrivalSpeed="13.57" duration="21.00" routeLength="184.68" waitingTime="0.00" waitingCount="0" stopTime="0.00" timeLoss="6.78" rerouteNo="0" devices="tripinfo_am_liv_nb.7" vType="car" speedFactor="1.04" vaporized=""/>
    <tripinfo id="am_mich_wb.16" depart="59.00" departLane="A1A0_0" departPos="5.10" departSpeed="0.00" departDelay="0.82" arrival="80.00" arrivalLane="A0B0_0" arrivalPos="93.60" arrivalSpeed="13.56" duration="21.00" routeLength="189.84" waitingTime="0.00" waitingCount="0" stopTime="0.00" timeLoss="6.27" rerouteNo="0" devices="tripinfo_am_mich_wb.16" vType="car" speedFactor="1.00" vaporized=""/>
    <tripinfo id="am_liv_sb.4" depart="59.00" departLane="A0A1_0" departPos="5.10" departSpeed="0.00" departDelay="27.00" arrival="82.00" arrivalLane="A1B1_0" arrivalPos="93.60" arrivalSpeed="11.80" duration="23.00" routeLength="184.68" waitingTime="0.00" waitingCount="0" stopTime="0.00" timeLoss="7.04" rerouteNo="0" devices="tripinfo_am_liv_sb.4" vType="car" speedFactor="0.92" vaporized=""/>
    <tripinfo id="am_mich_eb.10" depart="62.00" departLane="B0A0_0" departPos="5.10" departSpeed="0.00" departDelay="17.56" arrival="82.00" arrivalLane="A0A1_0" arrivalPos="93.60" arrivalSpeed="11.05" duration="20.00" routeLength="184.68" waitingTime="0.00" waitingCount="0" stopTime="0.00" timeLoss="6.67" rerouteNo="0" devices="tripinfo_am_mich_eb.10" vType="car" speedFactor="1.02" vaporized=""/>
    <tripinfo id="am_liv_sb.5" depart="62.00" departLane="A0A1_0" departPos="5.10" departSpeed="0.00" departDelay="22.00" arrival="84.00" arrivalLane="A1B1_0" arrivalPos="93.60" arrivalSpeed="13.22" duration="22.00" routeLength="184.68" waitingTime="0.00" waitingCount="0" stopTime="0.00" timeLoss="7.55" rerouteNo="0" devices="tripinfo_am_liv_sb.5" vType="car" speedFactor="1.17" vaporized=""/>
    <tripinfo id="am_mich_wb.17" depart="62.00" departLane="A1A0_0" departPos="5.10" departSpeed="0.00" departDelay="0.19" arrival="84.00" arrivalLane="A0B0_0" arrivalPos="93.60" arrivalSpeed="12.46" duration="22.00" routeLength="189.84" waitingTime="0.00" waitingCount="0" stopTime="0.00" timeLoss="6.03" rerouteNo="0" devices="tripinfo_am_mich_wb.17" vType="car" speedFactor="0.90" vaporized=""/>
    <tripinfo id="am_mich_wb.18" depart="66.00" departLane="A1A0_0" departPos="5.10" departSpeed="0.00" departDelay="0.55" arrival="86.00" arrivalLane="A0B0_0" arrivalPos="93.60" arrivalSpeed="13.24" duration="20.00" routeLength="189.84" waitingTime="0.00" waitingCount="0" stopTime="0.00" timeLoss="5.71" rerouteNo="0" devices="tripinfo_am_mich_wb.18" vType="car" speedFactor="1.17" vaporized=""/>
    <tripinfo id="am_liv_sb.6" depart="69.00" departLane="A0A1_0" departPos="5.10" departSpeed="0.00" departDelay="21.00" arrival="88.00" arrivalLane="A1B1_0" arrivalPos="93.60" arrivalSpeed="13.88" duration="19.00" routeLength="184.68" waitingTime="0.00" waitingCount="0" stopTime="0.00" timeLoss="5.68" rerouteNo="0" devices="tripinfo_am_liv_sb.6" vType="car" speedFactor="1.10" vaporized=""/>
    <tripinfo id="am_liv_nb.8" depart="65.00" departLane="B1B0_0" departPos="5.10" departSpeed="0.00" departDelay="1.00" arrival="88.00" arrivalLane="B0A0_0" arrivalPos="93.60" arrivalSpeed="10.85" duration="23.00" routeLength="184.68" waitingTime="0.00" waitingCount="0" stopTime="0.00" timeLoss="6.57" rerouteNo="0" devices="tripinfo_am_liv_nb.8" vType="car" speedFactor="0.85" vaporized=""/>
    <tripinfo id="am_mich_wb.19" depart="70.00" departLane="A1A0_0" departPos="5.10" departSpeed="0.00" departDelay="0.92" arrival="90.00" arrivalLane="A0B0_0" arrivalPos="93.60" arrivalSpeed="13.48" duration="20.00" routeLength="189.84" waitingTime="0.00" waitingCount="0" stopTime="0.00" timeLoss="5.09" rerouteNo="0" devices="tripinfo_am_mich_wb.19" vType="car" speedFactor="1.10" vaporized=""/>
    <tripinfo id="am_mich_eb.11" depart="70.00" departLane="B0A0_0" departPos="5.10" departSpeed="0.00" departDelay="21.12" arrival="93.00" arrivalLane="A0A1_0" arrivalPos="93.60" arrivalSpeed="7.69" duration="23.00" routeLength="184.68" waitingTime="0.00" waitingCount="0" stopTime="0.00" timeLoss="7.25" rerouteNo="0" devices="tripinfo_am_mich_eb.11" vType="car" speedFactor="0.90" vaporized=""/>
    <tripinfo id="am_liv_nb.9" depart="72.00" departLane="B1B0_0" departPos="5.10" departSpeed="0.00" departDelay="0.00" arrival="93.00" arrivalLane="B0A0_0" arrivalPos="93.60" arrivalSpeed="12.62" duration="21.00" routeLength="184.68" waitingTime="0.00" waitingCount="0" stopTime="0.00" timeLoss="7.12" rerouteNo="0" devices="tripinfo_am_liv_nb.9" vType="car" speedFactor="1.00" vaporized=""/>
    <tripinfo id="am_mich_wb.20" depart="73.00" departLane="A1A0_0" departPos="5.10" departSpeed="0.00" departDelay="0.28" arrival="93.00" arrivalLane="A0B0_0" arrivalPos="93.60" arrivalSpeed="13.25" duration="20.00" routeLength="189.84" waitingTime="0.00" waitingCount="0" stopTime="0.00" timeLoss="5.18" rerouteNo="0" devices="tripinfo_am_mich_wb.20" vType="car" speedFactor="1.14" vaporized=""/>
    <tripinfo id="am_mich_eb.12" depart="73.00" departLane="B0A0_0" departPos="5.10" departSpeed="0.00" departDelay="19.67" arrival="95.00" arrivalLane="A0A1_0" arrivalPos="93.60" arrivalSpeed="12.06" duration="22.00" routeLength="184.68" waitingTime="0.00" waitingCount="0" stopTime="0.00" timeLoss="7.56" rerouteNo="0" devices="tripinfo_am_mich_eb.12" vType="car" speedFactor="0.96" vaporized=""/>
    <tripinfo id="am_mich_wb.21" depart="77.00" departLane="A1A0_0" departPos="5.10" departSpeed="0.00" departDelay="0.64" arrival="97.00" arrivalLane="A0B0_0" arrivalPos="93.60" arrivalSpeed="12.45" duration="20.00" routeLength="189.84" waitingTime="0.00" waitingCount="0" stopTime="0.00" timeLoss="5.21" rerouteNo="0" devices="tripinfo_am_mich_wb.21" vType="car" speedFactor="0.97" vaporized=""/>
    <tripinfo id="am_liv_sb.7" depart="77.00" departLane="A0A1_0" departPos="5.10" departSpeed="0.00" departDelay="21.00" arrival="100.00" arrivalLane="A1B1_0" arrivalPos="93.60" arrivalSpeed="12.83" duration="23.00" routeLength="184.68" waitingTime="0.00" waitingCount="0" stopTime="0.00" timeLoss="9.05" rerouteNo="0" devices="tripinfo_am_liv_sb.7" vType="car" speedFactor="1.04" vaporized=""/>
    <tripinfo id="am_mich_wb.22" depart="80.00" departLane="A1A0_0" departPos="5.10" departSpeed="0.00" departDelay="0.01" arrival="100.00" arrivalLane="A0B0_0" arrivalPos="93.60" arrivalSpeed="12.64" duration="20.00" routeLength="189.84" waitingTime="0.00" waitingCount="0" stopTime="0.00" timeLoss="5.55" rerouteNo="0" devices="tripinfo_am_mich_wb.22" vType="car" speedFactor="1.08" vaporized=""/>
    <tripinfo id="am_liv_nb.10" depart="84.00" departLane="B1B0_0" departPos="5.10" departSpeed="0.00" departDelay="4.00" arrival="104.00" arrivalLane="B0A0_0" arrivalPos="93.60" arrivalSpeed="11.56" duration="20.00" routeLength="184.68" waitingTime="0.00" waitingCount="0" stopTime="0.00" timeLoss="6.70" rerouteNo="0" devices="tripinfo_am_liv_nb.10" vType="car" speedFactor="1.02" vaporized=""/>
    <tripinfo id="am_mich_wb.23" depart="84.00" departLane="A1A0_0" departPos="5.10" departSpeed="0.00" departDelay="0.37" arrival="106.00" arrivalLane="A0B0_0" arrivalPos="93.60" arrivalSpeed="12.44" duration="22.00" routeLength="189.84" waitingTime="0.00" waitingCount="0" stopTime="0.00" timeLoss="5.85" rerouteNo="0" devices="tripinfo_am_mich_wb.23" vType="car" speedFactor="0.94" vaporized=""/>
    <tripinfo id="am_mich_eb.13" depart="86.00" departLane="B0A0_0" departPos="5.10" departSpeed="0.00" departDelay="28.23" arrival="108.00" arrivalLane="A0A1_0" arrivalPos="93.60" arrivalSpeed="7.89" duration="22.00" routeLength="184.68" waitingTime="0.00" waitingCount="0" stopTime="0.00" timeLoss="8.03" rerouteNo="0" devices="tripinfo_am_mich_eb.13" vType="car" speedFactor="1.09" vaporized=""/>
    <tripinfo id="am_mich_wb.24" depart="88.00" departLane="A1A0_0" departPos="5.10" departSpeed="0.00" departDelay="0.74" arrival="110.00" arrivalLane="A0B0_0" arrivalPos="93.60" arrivalSpeed="12.02" duration="22.00" routeLength="189.84" waitingTime="0.00" waitingCount="0" stopTime="0.00" timeLoss="5.93" rerouteNo="0" devices="tripinfo_am_mich_wb.24" vType="car" speedFactor="0.91" vaporized=""/>
    <tripinfo id="am_liv_nb.11" depart="88.00" departLane="B1B0_0" departPos="5.10" departSpeed="0.00" departDelay="0.00" arrival="110.00" arrivalLane="B0A0_0" arrivalPos="93.60" arrivalSpeed="12.44" duration="22.00" routeLength="184.68" waitingTime="0.00" waitingCount="0" stopTime="0.00" timeLoss="6.65" rerouteNo="0" devices="tripinfo_am_liv_nb.11" vType="car" speedFactor="0.91" vaporized=""/>
    <tripinfo id="am_liv_sb.8" depart="88.00" departLane="A0A1_0" departPos="5.10" departSpeed="0.00" departDelay="24.00" arrival="111.00" arrivalLane="A1B1_0" arrivalPos="93.60" arrivalSpeed="10.59" duration="23.00" routeLength="184.68" waitingTime="0.00" waitingCount="0" stopTime="0.00" timeLoss="6.78" rerouteNo="0" devices="tripinfo_am_liv_sb.8" vType="car" speedFactor="0.85" vaporized=""/>
    <tripinfo id="am_mich_eb.14" depart="89.00" departLane="B0A0_0" departPos="5.10" departSpeed="0.00" departDelay="26.78" arrival="112.00" arrivalLane="A0A1_0" arrivalPos="93.60" arrivalSpeed="11.79" duration="23.00" routeLength="184.68" waitingTime="0.00" waitingCount="0" stopTime="0.00" timeLoss="6.58" rerouteNo="0" devices="tripinfo_am_mich_eb.14" vType="car" speedFactor="0.88" vaporized=""/>
    <tripinfo id="am_mich_wb.25" depart="91.00" departLane="A1A0_0" departPos="5.10" departSpeed="0.00" departDelay="0.10" arrival="112.00" arrivalLane="A0B0_0" arrivalPos="93.60" arrivalSpeed="12.96" duration="21.00" routeLength="189.84" waitingTime="0.00" waitingCount="0" stopTime="0.00" timeLoss="6.79" rerouteNo="0" devices="tripinfo_am_mich_wb.25" vType="car" speedFactor="1.02" vaporized=""/>
    <tripinfo id="am_liv_sb.9" depart="93.00" departLane="A0A1_0" departPos="5.10" departSpeed="0.00" departDelay="21.00" arrival="115.00" arrivalLane="A1B1_0" arrivalPos="93.60" arrivalSpeed="11.63" duration="22.00" routeLength="184.68" waitingTime="0.00" waitingCount="0" stopTime="0.00" timeLoss="6.73" rerouteNo="0" devices="tripinfo_am_liv_sb.9" vType="car" speedFactor="0.90" vaporized=""/>
    <tripinfo id="am_mich_wb.26" depart="95.00" departLane="A1A0_0" departPos="5.10" departSpeed="0.00" departDelay="0.46" arrival="117.00" arrivalLane="A0B0_0" arrivalPos="93.60" arrivalSpeed="12.91" duration="22.00" routeLength="189.84" waitingTime="0.00" waitingCount="0" stopTime="0.00" timeLoss="6.12" rerouteNo="0" devices="tripinfo_am_mich_wb.26" vType="car" speedFactor="0.94" vaporized=""/>
    <tripinfo id="am_liv_nb.12" depart="96.00" departLane="B1B0_0" departPos="5.10" departSpeed="0.00" departDelay="0.00" arrival="117.00" arrivalLane="B0A0_0" arrivalPos="93.60" arrivalSpeed="11.47" duration="21.00" routeLength="184.68" waitingTime="0.00" waitingCount="0" stopTime="0.00" timeLoss="7.01" rerouteNo="0" devices="tripinfo_am_liv_nb.12" vType="car" speedFactor="1.06" vaporized=""/>
    <tripinfo id="am_mich_wb.27" depart="99.00" departLane="A1A0_0" departPos="5.10" departSpeed="0.00" departDelay="0.83" arrival="120.00" arrivalLane="A0B0_0" arrivalPos="93.60" arrivalSpeed="12.67" duration="21.00" routeLength="189.84" waitingTime="0.00" waitingCount="0" stopTime="0.00" timeLoss="5.82" rerouteNo="0" devices="tripinfo_am_mich_wb.27" vType="car" speedFactor="1.03" vaporized=""/>
    <tripinfo id="am_mich_wb.28" depart="102.00" departLane="A1A0_0" departPos="5.10" departSpeed="0.00" departDelay="0.19" arrival="122.00" arrivalLane="A0B0_0" arrivalPos="93.60" arrivalSpeed="12.66" duration="20.00" routeLength="189.84" waitingTime="0.00" waitingCount="0" stopTime="0.00" timeLoss="5.55" rerouteNo="0" devices="tripinfo_am_mich_wb.28" vType="car" speedFactor="0.98" vaporized=""/>
    <tripinfo id="am_mich_eb.15" depart="103.00" departLane="B0A0_0" departPos="5.10" departSpeed="0.00" departDelay="36.34" arrival="125.00" arrivalLane="A0A1_0" arrivalPos="93.60" arrivalSpeed="12.50" duration="22.00" routeLength="184.68" waitingTime="0.00" waitingCount="0" stopTime="0.00" timeLoss="7.15" rerouteNo="0" devices="tripinfo_am_mich_eb.15" vType="car" speedFactor="1.02" vaporized=""/>
    <tripinfo id="am_liv_sb.10" depart="104.00" departLane="A0A1_0" departPos="5.10" departSpeed="0.00" departDelay="24.00" arrival="125.00" arrivalLane="A1B1_0" arrivalPos="93.60" arrivalSpeed="13.68" duration="21.00" routeLength="184.68" waitingTime="0.00" waitingCount="0" stopTime="0.00" timeLoss="6.95" rerouteNo="0" devices="tripinfo_am_liv_sb.10" vType="car" speedFactor="0.99" vaporized=""/>
    <tripinfo id="am_liv_nb.13" depart="104.00" departLane="B1B0_0" departPos="5.10" departSpeed="0.00" departDelay="0.00" arrival="125.00" arrivalLane="B0A0_0" arrivalPos="93.60" arrivalSpeed="13.32" duration="21.00" routeLength="184.68" waitingTime="0.00" waitingCount="0" stopTime="0.00" timeLoss="6.47" rerouteNo="0" devices="tripinfo_am_liv_nb.13" vType="car" speedFactor="1.09" vaporized=""/>
    <tripinfo id="am_mich_wb.29" depart="106.00" departLane="A1A0_0" departPos="5.10" departSpeed="0.00" departDelay="0.56" arrival="126.00" arrivalLane="A0B0_0" arrivalPos="93.60" arrivalSpeed="12.68" duration="20.00" routeLength="189.84" waitingTime="0.00" waitingCount="0" stopTime="0.00" timeLoss="5.50" rerouteNo="0" devices="tripinfo_am_mich_wb.29" vType="car" speedFactor="1.00" vaporized=""/>